<?xml version="1.0"?>
<VTKFile type="UnstructuredGrid" version="0.1" byte_order="LittleEndian" header_type="UInt64">
<UnstructuredGrid>
<Piece NumberOfPoints="213"  NumberOfCells="676">
<Points>
<DataArray type="Float32" Name="Points" NumberOfComponents="3" Format="ascii">
0.0000000 -0.0000000 5.0000000
0.0000000 -0.0000000 -5.0000000
1.5450799 -0.0000000 -4.7552800
2.9389300 -0.0000000 -4.0450802
4.0450802 -0.0000000 -2.9389300
4.7552800 -0.0000000 -1.5450799
5.0000000 -0.0000000 -0.0000000
4.7552800 -0.0000000 1.5450799
4.0450802 -0.0000000 2.9389300
2.9389300 -0.0000000 4.0450802
1.5450799 -0.0000000 4.7552800
0.6134540 4.8900099 -0.8435020
0.9744690 4.3348198 -2.2934201
1.9694901 4.5111699 -0.8777400
-3.7844200 2.5237000 2.0758500
-2.8522899 2.6516900 3.1357501
-3.6063800 1.3758900 3.1782000
1.7757500 1.1359600 4.5339098
3.0155001 1.2111000 3.8000000
3.3974299 1.2924800 -3.4332099
2.5151999 1.1334100 -4.1700301
-1.2979600 -2.3650301 -4.2097402
-1.2572700 -1.1043200 -4.7116599
-2.2504599 -1.4608800 -4.2191501
0.7078080 -1.3097301 4.7732201
1.9581701 -1.1989800 4.4416199
1.3753099 -2.4456899 4.1384902
0.5798560 3.3888700 3.6303301
-0.5476330 2.8877499 4.0448799
-0.1449620 4.1020398 2.8552201
-1.4087700 3.5597000 3.2161901
1.1149100 -2.0300500 -4.4312401
0.0877005 -3.2508900 -3.7979000
1.7807200 -2.9542799 -3.6195700
-0.1028400 -1.9780400 -4.5909400
-2.5121100 -4.2656798 -0.7023440
-2.2117200 -4.3875799 0.9260050
-1.1795800 -4.8376698 -0.4533880
-3.4814799 -3.5715899 0.3507990
1.3718200 1.7178100 -4.4907899
1.1738000 2.7439799 -4.0115800
-0.2707980 2.5717101 -4.2793698
0.3619220 3.5157199 -3.5367701
2.5231299 -1.6538900 -3.9872899
1.7451100 -1.0945300 -4.5559402
-2.9996400 3.8061500 1.2310100
-3.0902700 3.9301801 -0.0624907
-1.8493600 4.6120901 0.5553840
0.3597610 0.9306240 4.8994398
0.5548800 2.1493299 4.4802299
-0.6289460 1.6308399 4.6845298
-1.7688400 4.6319599 -0.6451110
3.3923399 3.4358301 1.2988700
3.7177100 3.3303299 0.2958340
4.2389202 2.4814501 0.9348430
2.6529200 4.2288198 0.2811500
4.2090902 -2.3190501 -1.3804200
4.1622400 -2.7687099 -0.0999850
4.7943902 -1.2951100 -0.5801210
3.4250700 -3.3097701 -1.5212899
2.7932100 -3.5717101 2.1073401
3.5110400 -2.5801101 2.4526801
3.9853001 -2.6734500 1.4035800
3.3220899 3.6392400 -0.8483250
4.3154898 2.5132899 -0.2448240
-0.4824500 4.7924900 -1.3413700
-1.7576500 2.4533200 3.9864600
2.2549901 -3.1099501 3.2005100
1.1439800 -3.5898700 3.2869699
-2.3151300 -3.6621001 2.4958401
-1.0798900 -4.3783898 2.1595199
-3.5614901 -3.0253501 1.7785000
0.0823463 -3.2478800 3.8005900
4.7839899 1.3600800 0.5134740
-4.3600798 -2.3640599 -0.6331750
-4.4532800 -1.2919000 -1.8706501
-4.8382902 -0.9177160 -0.8653150
-1.2416000 1.7136800 -4.5300899
-1.1330800 0.4200510 -4.8517699
0.1008780 1.1854100 -4.8564000
4.4521899 -1.1696200 -1.9519100
3.6424999 -1.3252900 -3.1584499
3.6735401 -2.4136600 -2.3831401
-2.7243299 1.4749500 3.9246099
-3.0641999 0.1064270 3.9496000
-4.0376601 -0.0222402 2.9490399
-2.7253201 -3.6209099 -2.1122501
-1.3537500 -4.3909798 -1.9714600
-1.5110000 -3.6268899 -3.0923400
-0.1726750 -4.2218099 -2.6732900
2.4830301 -3.4639399 -2.6145201
2.9770899 -2.4446399 -3.1875801
1.1346400 -3.8860199 -2.9345200
-2.6453300 3.5742900 2.2862000
-3.8088601 -2.5780399 -1.9612000
-3.5487399 -3.3643999 -1.0427001
-4.4752698 1.2050800 1.8760900
0.3677620 -4.9852500 0.1098610
-0.6892650 -4.9013200 0.7085170
0.5213480 -4.7580700 1.4453100
1.7751900 2.3123100 4.0622602
2.7536800 2.3634701 3.4396601
-4.6866698 -0.3377640 1.7091100
1.8981900 3.4627900 -3.0669200
-0.6376150 4.3215899 -2.4325500
-3.1572700 0.8023250 -3.7931399
-2.1727300 2.3177500 -3.8610001
-3.5950301 1.9705300 -2.8622999
-1.0115700 0.2052020 4.8923001
-1.9573700 0.8243270 4.5265002
-2.0016999 -1.2472900 4.4087901
1.3611600 3.9667900 2.7224600
2.9012201 3.1763501 2.5482800
1.9976600 3.1712101 3.3095000
-4.3151002 -2.4352500 0.6704030
-4.9499602 0.3364130 -0.6202800
-4.7069702 1.6351700 -0.4130570
-4.9058399 0.7687520 0.5845820
-4.8869500 -1.0015500 0.3385530
-4.0080600 -1.5480400 2.5571499
-3.3726699 -1.0700800 3.5327101
-3.9927700 2.8909500 -0.8367940
-2.7789600 3.9659600 -1.2444000
-4.2610798 2.5539899 0.5659510
2.4994500 2.3076200 -3.6643801
-2.1399601 -0.1604930 -4.5160599
-3.2086599 -0.7969610 -3.7509100
-1.3990200 -3.1040201 3.6616600
-0.3901420 -2.2002900 4.4728599
-2.9537001 -2.3914900 3.2490599
3.2017601 2.7400701 -2.6908600
-1.2887599 3.5309899 -3.2971499
-2.2196500 1.1821200 -4.3215399
1.0289201 4.8711400 0.4618360
-0.4525870 4.8818698 0.9810570
-0.5040010 4.9725399 -0.1406970
0.4460250 4.6251101 1.8464600
1.4307100 -4.7488399 -0.6337160
2.0291300 -4.4688702 0.9548850
2.9556899 -4.0205998 -0.3140900
3.3174100 -3.6499000 0.8203450
-4.1451702 0.1436040 -2.7922900
-4.4503698 1.4832100 -1.7304100
-4.7380600 -0.0432613 -1.5965300
-3.4477100 3.0116000 -2.0108600
4.2654300 -1.4668300 2.1574399
3.9135001 2.4638801 1.9010000
2.3674800 -4.1051202 -1.5946800
2.0771201 4.2171602 1.7032800
-1.3829200 4.4198899 1.8847100
3.9389000 2.7052801 -1.4719100
4.2708101 1.4226700 -2.1762700
4.7337399 1.3645200 -0.8542710
0.7271040 -0.6217360 -4.9076200
0.6313510 -1.3567200 -4.7708201
-2.8490901 -2.4132900 -3.3254600
-0.6077510 -0.9129220 4.8782401
-3.8560400 -1.4489200 -2.8340001
1.4764900 -4.1556201 2.3560200
-0.0253161 -4.8093901 -1.3671700
1.2615700 -4.4109201 -1.9880300
2.6798201 3.7466900 -1.9444500
4.7575202 -1.3486400 0.7396950
3.7515299 1.6599801 2.8584001
0.0969649 -4.1248498 2.8242199
-1.5255800 4.4819798 -1.6076100
3.0819199 -1.5752400 3.6083801
-2.1482899 3.8574901 -2.3461900
-4.4532800 -1.7200300 1.4865299
-2.7108500 3.0085599 -2.9325500
-0.3244470 -0.8034430 -4.9243498
4.4741902 1.3235900 1.7971400
0.0000000 -0.0000000 -0.0000000
0.1214100 -0.4753510 -2.4688499
2.4626901 -1.0478100 -0.8881470
1.9418100 1.5441700 0.4674730
0.0824446 -0.3883240 2.5000000
-1.1123199 2.1075399 -0.8441790
1.1104701 -2.0935400 0.9640710
-2.4725900 -0.1247880 -0.4881460
1.1957999 1.5560100 -1.8051100
-0.9981440 -2.1245201 -0.9232040
-1.7199399 1.0688900 1.5716200
-1.1649300 -1.9882100 1.3827500
0.3566330 1.8014801 2.0474200
-1.1509300 1.0971800 -2.6011300
2.6198201 -0.4780400 1.0570400
0.7923340 -2.2521701 -1.8206100
0.6953780 2.9126599 -0.3749960
-1.8103700 -0.9666040 -2.3341501
2.8141201 0.8220300 -1.0814101
-2.7685900 -0.5753160 1.3943800
-0.8050010 3.0997300 0.6769490
2.1122799 0.1222340 -2.7628901
1.7763400 0.5511880 2.4650199
-2.5922699 -1.9244300 0.0807874
-0.2297350 -3.1715801 0.3573030
-2.6877899 1.6547600 0.0724778
1.9021900 -2.6279299 -0.5109680
-0.1878330 2.4920399 -2.2550299
0.2052220 -2.1322100 2.4596901
-0.8158880 0.9998870 3.0655899
1.6241900 -1.1619101 2.7336700
0.4240560 1.0139900 -3.2069499
-0.9656450 0.0466514 -1.3396400
-2.6076400 1.2081100 -1.6249599
2.1887600 2.4584000 -0.8675950
-0.5518530 -1.9725600 -2.7694099
-1.6701300 -0.5452130 2.8012900
0.9708590 0.0894042 -1.2623700
-0.0364709 1.6265800 0.4224770
1.9723800 -1.5073000 -2.4824100
-1.0382700 -0.1888360 -3.4405799
</DataArray>
</Points>
<Cells>
<DataArray type="Int64" Name="connectivity" format="ascii">
175 184 148 188
174 178 172 187
178 181 172 187
153 154 44 173
170 154 153 173
174 186 58 190
176 178 172 186
172 176 182 183
136 148 184 188
6 58 186 190
178 187 174 198
174 187 172 209
112 175 146 194
62 178 186 198
148 175 112 184
172 183 182 191
58 174 57 186
176 186 172 194
174 57 186 198
62 140 178 198
136 188 184 192
48 49 194 201
172 179 183 191
182 183 176 208
30 184 182 192
112 184 175 194
73 186 175 190
175 172 186 194
182 184 30 201
30 182 93 192
62 186 57 198
179 181 172 183
61 62 178 186
175 194 184 210
137 187 159 196
170 34 154 173
177 179 172 210
172 194 175 210
173 181 187 209
177 197 179 210
112 146 163 194
172 182 179 191
181 183 179 195
75 189 179 195
187 196 137 198
179 182 172 210
174 172 178 186
184 194 49 201
159 89 181 187
176 48 194 201
75 94 189 195
6 186 73 190
179 197 182 210
172 179 177 204
17 48 49 194
56 57 58 174
137 160 159 187
48 10 176 194
113 111 112 184
159 187 181 196
175 190 174 209
181 187 178 196
175 186 171 194
172 181 178 183
175 186 172 209
173 204 181 209
174 186 175 209
148 55 175 188
182 191 183 208
171 175 73 186
62 140 60 178
178 186 176 202
146 54 171 175
113 101 100 194
62 60 61 178
111 136 148 184
172 187 181 209
162 58 57 186
154 31 44 173
177 185 169 199
172 178 176 183
86 94 95 195
5 58 6 190
101 112 163 194
178 183 181 196
181 189 94 195
61 186 178 202
175 186 174 190
111 148 112 184
30 15 93 182
177 204 180 209
174 172 186 209
86 94 181 189
170 173 153 212
177 209 180 210
54 64 73 175
178 196 187 198
0 48 10 176
180 199 185 204
112 148 52 175
137 160 187 198
158 178 99 200
1 153 173 212
14 93 182 197
57 174 56 198
54 73 171 175
167 177 169 199
51 165 65 177
35 181 195 196
52 148 55 175
153 44 2 173
87 159 89 181
48 17 10 194
73 175 64 190
52 146 112 175
185 199 177 204
182 184 176 210
169 185 177 205
172 181 204 209
172 182 176 210
86 181 94 195
1 173 153 203
172 204 177 209
180 177 199 204
175 188 55 206
62 57 140 198
178 196 99 200
55 53 52 175
61 178 60 202
54 53 64 175
16 182 83 208
172 181 179 204
183 191 179 195
86 189 181 207
172 209 177 210
24 0 10 176
55 53 175 206
31 173 207 211
80 56 58 174
146 52 54 175
89 181 187 207
170 34 173 212
75 141 179 189
186 194 176 202
153 173 2 203
12 188 180 206
65 177 165 199
49 184 100 194
76 75 179 195
113 100 184 194
136 133 148 188
62 162 57 186
12 180 103 206
159 181 87 196
1 170 153 212
75 94 157 189
175 184 188 210
44 173 31 211
19 190 180 193
44 193 173 211
53 54 52 175
29 184 30 192
16 191 182 208
16 85 191 208
124 19 180 193
185 180 204 209
180 188 12 199
14 45 93 197
7 73 6 186
75 157 141 189
75 141 143 179
65 188 177 199
185 203 180 209
19 130 180 190
48 176 0 201
17 49 100 194
177 188 65 192
16 83 84 208
176 183 178 200
80 5 4 190
167 165 177 199
64 175 53 206
19 130 124 180
6 58 162 186
37 159 87 196
155 189 86 207
105 185 189 212
51 177 65 192
187 207 173 211
180 209 175 210
67 158 68 200
141 179 189 205
117 191 179 197
87 181 89 207
169 167 144 177
182 201 83 208
10 24 176 202
105 189 185 205
35 195 36 196
31 207 187 211
80 82 56 174
184 192 188 210
12 103 180 199
96 182 16 191
24 156 0 176
67 178 158 200
64 190 175 206
83 182 15 201
182 191 96 197
28 30 184 201
37 87 181 196
82 174 80 211
60 178 67 202
122 165 51 177
117 118 179 191
34 207 173 212
131 167 169 199
174 186 178 198
171 73 7 186
88 86 181 207
61 60 67 202
76 179 118 195
159 160 89 187
124 180 40 203
46 177 51 192
14 93 15 182
115 179 143 205
40 180 103 199
76 74 75 195
165 122 167 177
128 156 176 208
128 156 24 176
46 122 51 177
138 196 178 198
86 155 94 189
144 177 122 197
40 124 103 180
104 65 165 199
169 177 144 205
164 158 99 200
176 184 182 201
85 16 84 208
176 194 10 202
88 155 86 207
2 173 44 193
76 75 143 179
67 60 158 178
143 179 141 205
37 181 35 196
117 118 115 179
136 184 29 192
175 188 180 210
180 188 177 210
96 16 85 191
171 186 8 194
176 200 128 208
115 118 76 179
124 20 19 193
138 137 196 198
15 83 16 182
144 167 122 177
156 108 0 176
117 96 191 197
36 195 183 196
144 177 197 205
24 128 176 200
1 173 203 212
177 192 46 197
66 83 15 201
176 194 184 201
164 99 196 200
118 179 191 195
6 73 152 190
180 190 130 206
138 178 140 198
136 133 188 192
140 138 60 178
117 179 115 197
116 115 142 205
75 74 94 195
148 133 55 188
173 193 2 203
24 200 176 202
135 65 188 192
163 171 8 194
117 115 116 197
96 14 182 197
87 89 88 207
158 138 99 178
96 14 16 182
178 200 67 202
37 87 35 181
115 76 143 179
167 104 165 199
172 175 209 210
149 30 93 192
105 141 189 205
51 65 135 192
70 196 183 200
111 29 136 184
122 177 46 197
61 145 186 202
108 0 176 201
81 82 80 211
73 64 152 190
108 176 156 208
177 188 180 199
99 178 138 196
87 88 181 207
179 189 181 195
192 197 177 210
180 199 40 203
31 187 33 211
90 198 59 211
28 30 29 184
127 200 183 208
183 191 129 208
87 86 35 181
12 188 65 199
182 197 192 210
180 190 175 209
4 190 19 193
173 209 187 211
100 27 113 184
103 180 130 206
142 115 143 205
158 60 138 178
14 15 16 182
90 187 198 211
180 188 175 206
144 122 121 197
103 124 130 180
161 12 103 206
105 189 126 212
71 129 183 191
173 187 181 207
32 187 31 207
61 145 62 186
132 185 105 212
117 102 118 191
12 13 188 206
108 201 176 208
105 141 126 189
10 25 24 202
87 88 86 181
185 199 180 203
128 200 127 208
71 191 183 195
179 177 204 205
28 184 49 201
28 66 30 201
173 189 181 204
77 203 185 212
183 195 181 196
100 49 27 184
8 194 186 202
32 33 31 187
82 90 59 211
187 209 174 211
173 181 189 207
147 187 160 198
162 7 6 186
40 103 42 199
182 192 184 210
27 111 113 184
105 126 125 212
29 27 28 184
170 22 34 212
47 46 51 192
181 189 179 204
149 29 30 192
6 152 5 190
164 196 70 200
90 187 147 198
76 118 74 195
45 46 192 197
135 133 134 192
135 188 133 192
89 160 92 187
118 191 168 195
59 57 56 198
19 151 130 190
177 179 197 205
39 124 40 203
12 11 65 188
118 168 114 195
127 183 129 208
39 20 124 203
179 191 182 197
37 35 36 196
8 171 7 186
138 137 97 196
136 134 133 192
28 27 49 184
97 137 159 196
104 12 65 199
96 102 117 191
27 29 111 184
36 71 183 195
160 147 90 187
132 77 185 212
178 176 200 202
8 9 194 202
155 157 94 189
189 207 23 212
4 151 19 190
89 92 32 187
141 157 126 189
175 190 180 206
64 150 190 206
22 23 21 212
189 204 185 205
61 166 145 202
150 130 190 206
12 161 13 206
70 183 127 200
106 185 169 205
71 119 129 191
120 129 119 191
1 153 2 203
162 62 145 186
36 71 69 183
121 144 197 205
10 194 9 202
120 129 191 208
137 147 160 198
50 49 48 201
35 38 36 195
89 187 32 207
11 135 65 188
122 46 121 197
132 105 125 212
92 160 90 187
132 78 77 212
23 207 21 212
173 193 209 211
71 168 191 195
36 183 70 196
129 69 71 183
182 176 201 208
135 11 133 188
95 94 74 195
183 200 176 208
109 83 201 208
91 90 82 211
55 188 13 206
26 200 24 202
179 204 189 205
25 10 9 202
132 106 105 185
103 130 161 206
164 68 158 200
38 35 95 195
20 2 193 203
106 185 41 199
33 32 92 187
128 110 156 208
183 196 178 200
127 69 129 183
77 41 106 185
151 150 130 190
18 100 101 194
36 38 71 195
125 126 23 212
77 41 185 203
85 102 96 191
97 99 138 196
55 133 13 188
70 69 127 183
12 42 103 199
47 45 46 192
126 189 23 212
152 64 150 190
167 131 104 199
71 168 119 191
85 120 191 208
114 74 118 195
11 12 13 188
18 101 163 194
8 166 9 202
4 5 151 190
28 49 50 201
90 147 59 198
70 36 69 183
96 123 14 197
185 204 177 205
109 84 83 208
41 199 185 203
3 81 193 211
71 114 168 195
64 53 63 206
106 41 131 199
110 128 127 208
9 10 17 194
45 14 123 197
90 33 187 211
55 63 53 206
174 198 187 211
164 99 70 196
102 168 118 191
140 57 139 198
33 92 90 187
40 199 41 203
24 26 128 200
93 45 149 192
138 140 139 198
3 43 81 211
32 31 34 207
108 48 0 201
26 67 68 200
174 209 193 211
1 79 78 212
106 169 107 205
4 3 81 193
117 123 96 197
193 203 173 209
85 84 120 208
70 127 164 200
143 141 142 205
145 7 162 186
135 47 51 192
3 4 19 193
116 123 117 197
1 203 79 212
149 136 29 192
180 203 193 209
138 139 137 198
18 17 100 194
185 173 204 212
145 8 7 186
37 36 98 196
127 129 110 208
185 204 189 212
50 48 108 201
8 18 163 194
11 13 133 188
180 193 190 209
190 193 174 209
26 67 200 202
98 36 70 196
41 40 42 199
88 21 155 207
37 97 159 196
149 45 47 192
70 99 98 196
134 136 149 192
20 39 2 203
139 57 59 198
85 120 119 191
72 164 127 200
185 203 173 212
44 31 43 211
189 204 173 212
152 150 151 190
63 150 64 206
61 67 166 202
3 20 2 193
147 137 139 198
3 2 44 193
8 9 18 194
132 77 106 185
23 126 155 189
5 152 151 190
45 123 46 197
89 32 88 207
177 188 192 210
110 108 156 208
157 155 126 189
173 207 189 212
20 3 19 193
63 55 13 206
132 125 78 212
85 119 102 191
9 17 18 194
90 91 33 211
26 72 128 200
31 33 43 211
134 47 135 192
25 26 24 202
121 142 144 205
109 201 108 208
104 42 12 199
2 79 1 203
128 72 127 200
38 95 74 195
46 123 121 197
50 66 28 201
119 168 102 191
26 68 72 200
105 107 141 205
91 82 81 211
77 79 41 203
109 83 66 201
121 123 116 197
107 169 144 205
22 125 23 212
120 110 129 208
37 98 97 196
9 166 25 202
71 38 114 195
72 68 164 200
38 74 114 195
147 139 59 198
39 40 41 203
107 142 141 205
130 150 161 206
104 131 42 199
63 13 161 206
1 78 170 212
39 79 2 203
50 109 66 201
41 42 131 199
110 109 108 208
134 149 47 192
43 33 91 211
170 78 22 212
21 88 32 207
98 99 97 196
109 110 84 208
161 150 63 206
21 32 34 207
144 142 107 205
26 166 67 202
81 43 91 211
25 166 26 202
39 41 79 203
50 108 109 201
84 110 120 208
22 78 125 212
194 146 171 175
194 171 146 163
194 113 112 184
194 112 113 101
34 173 31 154
34 31 173 207
190 80 58 174
190 58 80 5
197 93 192 45
197 192 93 182
195 86 35 95
195 35 86 181
176 210 194 172
194 210 176 184
197 115 205 179
197 205 115 116
193 124 203 180
193 203 124 20
15 201 30 66
30 201 15 182
209 185 173 204
209 173 185 203
80 211 193 81
193 211 80 174
193 4 80 81
59 211 174 82
174 211 59 198
174 56 59 82
59 56 174 198
202 145 8 166
202 8 145 186
199 106 169 131
199 169 106 185
205 116 121 142
205 121 116 197
205 106 105 107
205 105 106 185
207 23 155 189
207 155 23 21
21 212 34 22
34 212 21 207
211 3 44 193
211 44 3 43
212 79 77 203
212 77 79 78
80 193 190 4
190 193 80 174
</DataArray>
<DataArray type="Int64" Name="offsets" format="ascii">
4 8 12 16 20 24 28 32 36 40 44 48 52 56 60 64 68 72 76 80 
84 88 92 96 100 104 108 112 116 120 124 128 132 136 140 144 148 152 156 160 
164 168 172 176 180 184 188 192 196 200 204 208 212 216 220 224 228 232 236 240 
244 248 252 256 260 264 268 272 276 280 284 288 292 296 300 304 308 312 316 320 
324 328 332 336 340 344 348 352 356 360 364 368 372 376 380 384 388 392 396 400 
404 408 412 416 420 424 428 432 436 440 444 448 452 456 460 464 468 472 476 480 
484 488 492 496 500 504 508 512 516 520 524 528 532 536 540 544 548 552 556 560 
564 568 572 576 580 584 588 592 596 600 604 608 612 616 620 624 628 632 636 640 
644 648 652 656 660 664 668 672 676 680 684 688 692 696 700 704 708 712 716 720 
724 728 732 736 740 744 748 752 756 760 764 768 772 776 780 784 788 792 796 800 
804 808 812 816 820 824 828 832 836 840 844 848 852 856 860 864 868 872 876 880 
884 888 892 896 900 904 908 912 916 920 924 928 932 936 940 944 948 952 956 960 
964 968 972 976 980 984 988 992 996 1000 1004 1008 1012 1016 1020 1024 1028 1032 1036 1040 
1044 1048 1052 1056 1060 1064 1068 1072 1076 1080 1084 1088 1092 1096 1100 1104 1108 1112 1116 1120 
1124 1128 1132 1136 1140 1144 1148 1152 1156 1160 1164 1168 1172 1176 1180 1184 1188 1192 1196 1200 
1204 1208 1212 1216 1220 1224 1228 1232 1236 1240 1244 1248 1252 1256 1260 1264 1268 1272 1276 1280 
1284 1288 1292 1296 1300 1304 1308 1312 1316 1320 1324 1328 1332 1336 1340 1344 1348 1352 1356 1360 
1364 1368 1372 1376 1380 1384 1388 1392 1396 1400 1404 1408 1412 1416 1420 1424 1428 1432 1436 1440 
1444 1448 1452 1456 1460 1464 1468 1472 1476 1480 1484 1488 1492 1496 1500 1504 1508 1512 1516 1520 
1524 1528 1532 1536 1540 1544 1548 1552 1556 1560 1564 1568 1572 1576 1580 1584 1588 1592 1596 1600 
1604 1608 1612 1616 1620 1624 1628 1632 1636 1640 1644 1648 1652 1656 1660 1664 1668 1672 1676 1680 
1684 1688 1692 1696 1700 1704 1708 1712 1716 1720 1724 1728 1732 1736 1740 1744 1748 1752 1756 1760 
1764 1768 1772 1776 1780 1784 1788 1792 1796 1800 1804 1808 1812 1816 1820 1824 1828 1832 1836 1840 
1844 1848 1852 1856 1860 1864 1868 1872 1876 1880 1884 1888 1892 1896 1900 1904 1908 1912 1916 1920 
1924 1928 1932 1936 1940 1944 1948 1952 1956 1960 1964 1968 1972 1976 1980 1984 1988 1992 1996 2000 
2004 2008 2012 2016 2020 2024 2028 2032 2036 2040 2044 2048 2052 2056 2060 2064 2068 2072 2076 2080 
2084 2088 2092 2096 2100 2104 2108 2112 2116 2120 2124 2128 2132 2136 2140 2144 2148 2152 2156 2160 
2164 2168 2172 2176 2180 2184 2188 2192 2196 2200 2204 2208 2212 2216 2220 2224 2228 2232 2236 2240 
2244 2248 2252 2256 2260 2264 2268 2272 2276 2280 2284 2288 2292 2296 2300 2304 2308 2312 2316 2320 
2324 2328 2332 2336 2340 2344 2348 2352 2356 2360 2364 2368 2372 2376 2380 2384 2388 2392 2396 2400 
2404 2408 2412 2416 2420 2424 2428 2432 2436 2440 2444 2448 2452 2456 2460 2464 2468 2472 2476 2480 
2484 2488 2492 2496 2500 2504 2508 2512 2516 2520 2524 2528 2532 2536 2540 2544 2548 2552 2556 2560 
2564 2568 2572 2576 2580 2584 2588 2592 2596 2600 2604 2608 2612 2616 2620 2624 2628 2632 2636 2640 
2644 2648 2652 2656 2660 2664 2668 2672 2676 2680 2684 2688 2692 2696 2700 2704 
</DataArray>
<DataArray type="UInt8" Name="types" format="ascii">
10 10 10 10 10 10 10 10 10 10 10 10 10 10 10 10 10 10 10 10 
10 10 10 10 10 10 10 10 10 10 10 10 10 10 10 10 10 10 10 10 
10 10 10 10 10 10 10 10 10 10 10 10 10 10 10 10 10 10 10 10 
10 10 10 10 10 10 10 10 10 10 10 10 10 10 10 10 10 10 10 10 
10 10 10 10 10 10 10 10 10 10 10 10 10 10 10 10 10 10 10 10 
10 10 10 10 10 10 10 10 10 10 10 10 10 10 10 10 10 10 10 10 
10 10 10 10 10 10 10 10 10 10 10 10 10 10 10 10 10 10 10 10 
10 10 10 10 10 10 10 10 10 10 10 10 10 10 10 10 10 10 10 10 
10 10 10 10 10 10 10 10 10 10 10 10 10 10 10 10 10 10 10 10 
10 10 10 10 10 10 10 10 10 10 10 10 10 10 10 10 10 10 10 10 
10 10 10 10 10 10 10 10 10 10 10 10 10 10 10 10 10 10 10 10 
10 10 10 10 10 10 10 10 10 10 10 10 10 10 10 10 10 10 10 10 
10 10 10 10 10 10 10 10 10 10 10 10 10 10 10 10 10 10 10 10 
10 10 10 10 10 10 10 10 10 10 10 10 10 10 10 10 10 10 10 10 
10 10 10 10 10 10 10 10 10 10 10 10 10 10 10 10 10 10 10 10 
10 10 10 10 10 10 10 10 10 10 10 10 10 10 10 10 10 10 10 10 
10 10 10 10 10 10 10 10 10 10 10 10 10 10 10 10 10 10 10 10 
10 10 10 10 10 10 10 10 10 10 10 10 10 10 10 10 10 10 10 10 
10 10 10 10 10 10 10 10 10 10 10 10 10 10 10 10 10 10 10 10 
10 10 10 10 10 10 10 10 10 10 10 10 10 10 10 10 10 10 10 10 
10 10 10 10 10 10 10 10 10 10 10 10 10 10 10 10 10 10 10 10 
10 10 10 10 10 10 10 10 10 10 10 10 10 10 10 10 10 10 10 10 
10 10 10 10 10 10 10 10 10 10 10 10 10 10 10 10 10 10 10 10 
10 10 10 10 10 10 10 10 10 10 10 10 10 10 10 10 10 10 10 10 
10 10 10 10 10 10 10 10 10 10 10 10 10 10 10 10 10 10 10 10 
10 10 10 10 10 10 10 10 10 10 10 10 10 10 10 10 10 10 10 10 
10 10 10 10 10 10 10 10 10 10 10 10 10 10 10 10 10 10 10 10 
10 10 10 10 10 10 10 10 10 10 10 10 10 10 10 10 10 10 10 10 
10 10 10 10 10 10 10 10 10 10 10 10 10 10 10 10 10 10 10 10 
10 10 10 10 10 10 10 10 10 10 10 10 10 10 10 10 10 10 10 10 
10 10 10 10 10 10 10 10 10 10 10 10 10 10 10 10 10 10 10 10 
10 10 10 10 10 10 10 10 10 10 10 10 10 10 10 10 10 10 10 10 
10 10 10 10 10 10 10 10 10 10 10 10 10 10 10 10 10 10 10 10 
10 10 10 10 10 10 10 10 10 10 10 10 10 10 10 10 
</DataArray>
</Cells>
<PointData>
<DataArray type="Float32" Name="Potential" NumberOfComponents="1" format="ascii">
-120.0000000
-120.0000000
-119.9998016
-119.9999161
-119.9999161
-119.9998016
-120.0000000
-119.9998016
-119.9999161
-119.9999161
-119.9998016
-120.0000916
-120.0001450
-119.9998627
-120.0002365
-119.9997330
-120.0000153
-120.0001526
-120.0000153
-119.9998322
-120.0000000
-119.9999084
-119.9999542
-119.9998398
-120.0000763
-119.9998474
-119.9998932
-119.9998474
-120.0002747
-120.0001373
-119.9998779
-120.0000839
-120.0001068
-120.0000916
-119.9997406
-120.0000381
-120.0002365
-120.0000916
-120.0000839
-119.9997787
-120.0000305
-120.0001526
-120.0000763
-120.0000839
-119.9999695
-120.0000076
-119.9999542
-119.9997864
-120.0000000
-119.9998550
-120.0001526
-120.0000763
-119.9998093
-119.9999161
-119.9998550
-119.9997406
-119.9999619
-119.9999619
-120.0001373
-120.0000381
-120.0000839
-120.0000610
-119.9999542
-120.0000305
-120.0000763
-119.9999619
-119.9998779
-120.0001678
-120.0001373
-120.0001144
-119.9999313
-120.0000916
-119.9999390
-120.0001526
-119.9999313
-120.0002136
-120.0001221
-119.9999161
-119.9999237
-119.9999695
-119.9997864
-120.0000153
-120.0000381
-120.0000763
-119.9999390
-120.0001526
-119.9997864
-119.9999847
-120.0000916
-119.9998856
-120.0001678
-119.9999847
-119.9998322
-120.0001526
-120.0000610
-119.9998322
-119.9998550
-120.0001831
-120.0001068
-119.9997711
-120.0001678
-120.0000381
-120.0000763
-120.0001907
-119.9999619
-119.9999390
-120.0002136
-119.9999542
-119.9999161
-120.0000839
-119.9998169
-119.9998398
-120.0000458
-120.0000381
-119.9998627
-120.0001373
-119.9998322
-119.9999084
-120.0000076
-119.9999390
-120.0000763
-120.0001450
-119.9999390
-119.9998322
-120.0002136
-119.9999161
-119.9998550
-119.9997559
-119.9998093
-119.9998016
-119.9998932
-119.9999390
-119.9998016
-119.9998627
-119.9998093
-119.9998322
-119.9999847
-120.0000305
-119.9998779
-119.9998856
-119.9997253
-119.9997025
-120.0001068
-119.9999619
-119.9999924
-120.0001526
-119.9999390
-119.9998856
-120.0001602
-120.0001373
-119.9999619
-119.9998016
-119.9999313
-119.9998474
-120.0000916
-119.9998398
-120.0000687
-119.9998474
-120.0001526
-120.0001450
-120.0001907
-120.0000381
-119.9998856
-119.9998093
-120.0000153
-119.9997330
-120.0000916
-119.9999390
-119.9998932
-119.9999542
-120.0000305
-119.9999084
11.2669849
-22.3600216
-31.5274200
-20.6238937
-20.6204777
-21.5104389
-21.9417877
-20.8060398
-25.3550949
-21.2464733
-22.6144142
-25.2739582
-28.1735096
-39.5439301
-29.9760475
-35.0127029
-36.3103294
-38.9072685
-39.6051788
-39.8160286
-44.9470177
-53.1407394
-35.5367050
-42.4981956
-41.7566605
-40.0756226
-46.4048576
-48.0787239
-43.9354553
-47.7848320
-48.7101517
-50.5144081
-6.4406958
-46.8931618
-51.0654526
-50.9801254
-45.5668831
-2.5749769
-3.2252922
-53.0406303
-56.6837769
</DataArray>
<DataArray type="Float32" Name="density" NumberOfComponents="1" format="ascii">
-120.0000000
-120.0000000
-119.9998016
-119.9999161
-119.9999161
-119.9998016
-120.0000000
-119.9998016
-119.9999161
-119.9999161
-119.9998016
-120.0000916
-120.0001450
-119.9998627
-120.0002365
-119.9997330
-120.0000153
-120.0001526
-120.0000153
-119.9998322
-120.0000000
-119.9999084
-119.9999542
-119.9998398
-120.0000763
-119.9998474
-119.9998932
-119.9998474
-120.0002747
-120.0001373
-119.9998779
-120.0000839
-120.0001068
-120.0000916
-119.9997406
-120.0000381
-120.0002365
-120.0000916
-120.0000839
-119.9997787
-120.0000305
-120.0001526
-120.0000763
-120.0000839
-119.9999695
-120.0000076
-119.9999542
-119.9997864
-120.0000000
-119.9998550
-120.0001526
-120.0000763
-119.9998093
-119.9999161
-119.9998550
-119.9997406
-119.9999619
-119.9999619
-120.0001373
-120.0000381
-120.0000839
-120.0000610
-119.9999542
-120.0000305
-120.0000763
-119.9999619
-119.9998779
-120.0001678
-120.0001373
-120.0001144
-119.9999313
-120.0000916
-119.9999390
-120.0001526
-119.9999313
-120.0002136
-120.0001221
-119.9999161
-119.9999237
-119.9999695
-119.9997864
-120.0000153
-120.0000381
-120.0000763
-119.9999390
-120.0001526
-119.9997864
-119.9999847
-120.0000916
-119.9998856
-120.0001678
-119.9999847
-119.9998322
-120.0001526
-120.0000610
-119.9998322
-119.9998550
-120.0001831
-120.0001068
-119.9997711
-120.0001678
-120.0000381
-120.0000763
-120.0001907
-119.9999619
-119.9999390
-120.0002136
-119.9999542
-119.9999161
-120.0000839
-119.9998169
-119.9998398
-120.0000458
-120.0000381
-119.9998627
-120.0001373
-119.9998322
-119.9999084
-120.0000076
-119.9999390
-120.0000763
-120.0001450
-119.9999390
-119.9998322
-120.0002136
-119.9999161
-119.9998550
-119.9997559
-119.9998093
-119.9998016
-119.9998932
-119.9999390
-119.9998016
-119.9998627
-119.9998093
-119.9998322
-119.9999847
-120.0000305
-119.9998779
-119.9998856
-119.9997253
-119.9997025
-120.0001068
-119.9999619
-119.9999924
-120.0001526
-119.9999390
-119.9998856
-120.0001602
-120.0001373
-119.9999619
-119.9998016
-119.9999313
-119.9998474
-120.0000916
-119.9998398
-120.0000687
-119.9998474
-120.0001526
-120.0001450
-120.0001907
-120.0000381
-119.9998856
-119.9998093
-120.0000153
-119.9997330
-120.0000916
-119.9999390
-119.9998932
-119.9999542
-120.0000305
-119.9999084
5.0000000
-26.6795921
-34.7577667
-26.8680935
-27.0379639
-26.9580879
-27.7274303
-26.8377991
-30.5476341
-26.8109131
-27.8535442
-31.1101913
-32.8222313
-41.4716034
-36.0465660
-40.0734253
-40.5387955
-43.3000946
-43.8222656
-44.7018738
-48.5730591
-55.5511475
-42.6775780
-47.1491051
-46.1968193
-44.8384895
-48.9271545
-51.6535187
-48.1925583
-50.3164444
-52.3048973
-52.4626350
-8.6464109
-49.4990540
-52.9356079
-54.3258286
-49.6690826
-7.7206917
-9.1278973
-56.6229782
-59.7562714
</DataArray>
</PointData>
</Piece>
</UnstructuredGrid>
</VTKFile>