# vtk DataFile Version 3.0
Quad mesh with nodal scalar solution
ASCII
DATASET UNSTRUCTURED_GRID
POINTS 900
 float
  0.00000000   0.00000000   0.00000000
  0.03448276   0.00000000   0.00000000
  0.06896552   0.00000000   0.00000000
  0.10344828   0.00000000   0.00000000
  0.13793103   0.00000000   0.00000000
  0.17241379   0.00000000   0.00000000
  0.20689655   0.00000000   0.00000000
  0.24137931   0.00000000   0.00000000
  0.27586207   0.00000000   0.00000000
  0.31034483   0.00000000   0.00000000
  0.34482759   0.00000000   0.00000000
  0.37931034   0.00000000   0.00000000
  0.41379310   0.00000000   0.00000000
  0.44827586   0.00000000   0.00000000
  0.48275862   0.00000000   0.00000000
  0.51724138   0.00000000   0.00000000
  0.55172414   0.00000000   0.00000000
  0.58620690   0.00000000   0.00000000
  0.62068966   0.00000000   0.00000000
  0.65517241   0.00000000   0.00000000
  0.68965517   0.00000000   0.00000000
  0.72413793   0.00000000   0.00000000
  0.75862069   0.00000000   0.00000000
  0.79310345   0.00000000   0.00000000
  0.82758621   0.00000000   0.00000000
  0.86206897   0.00000000   0.00000000
  0.89655172   0.00000000   0.00000000
  0.93103448   0.00000000   0.00000000
  0.96551724   0.00000000   0.00000000
  1.00000000   0.00000000   0.00000000
  0.00000000   0.03448276   0.00000000
  0.03448276   0.03448276   0.00000000
  0.06896552   0.03448276   0.00000000
  0.10344828   0.03448276   0.00000000
  0.13793103   0.03448276   0.00000000
  0.17241379   0.03448276   0.00000000
  0.20689655   0.03448276   0.00000000
  0.24137931   0.03448276   0.00000000
  0.27586207   0.03448276   0.00000000
  0.31034483   0.03448276   0.00000000
  0.34482759   0.03448276   0.00000000
  0.37931034   0.03448276   0.00000000
  0.41379310   0.03448276   0.00000000
  0.44827586   0.03448276   0.00000000
  0.48275862   0.03448276   0.00000000
  0.51724138   0.03448276   0.00000000
  0.55172414   0.03448276   0.00000000
  0.58620690   0.03448276   0.00000000
  0.62068966   0.03448276   0.00000000
  0.65517241   0.03448276   0.00000000
  0.68965517   0.03448276   0.00000000
  0.72413793   0.03448276   0.00000000
  0.75862069   0.03448276   0.00000000
  0.79310345   0.03448276   0.00000000
  0.82758621   0.03448276   0.00000000
  0.86206897   0.03448276   0.00000000
  0.89655172   0.03448276   0.00000000
  0.93103448   0.03448276   0.00000000
  0.96551724   0.03448276   0.00000000
  1.00000000   0.03448276   0.00000000
  0.00000000   0.06896552   0.00000000
  0.03448276   0.06896552   0.00000000
  0.06896552   0.06896552   0.00000000
  0.10344828   0.06896552   0.00000000
  0.13793103   0.06896552   0.00000000
  0.17241379   0.06896552   0.00000000
  0.20689655   0.06896552   0.00000000
  0.24137931   0.06896552   0.00000000
  0.27586207   0.06896552   0.00000000
  0.31034483   0.06896552   0.00000000
  0.34482759   0.06896552   0.00000000
  0.37931034   0.06896552   0.00000000
  0.41379310   0.06896552   0.00000000
  0.44827586   0.06896552   0.00000000
  0.48275862   0.06896552   0.00000000
  0.51724138   0.06896552   0.00000000
  0.55172414   0.06896552   0.00000000
  0.58620690   0.06896552   0.00000000
  0.62068966   0.06896552   0.00000000
  0.65517241   0.06896552   0.00000000
  0.68965517   0.06896552   0.00000000
  0.72413793   0.06896552   0.00000000
  0.75862069   0.06896552   0.00000000
  0.79310345   0.06896552   0.00000000
  0.82758621   0.06896552   0.00000000
  0.86206897   0.06896552   0.00000000
  0.89655172   0.06896552   0.00000000
  0.93103448   0.06896552   0.00000000
  0.96551724   0.06896552   0.00000000
  1.00000000   0.06896552   0.00000000
  0.00000000   0.10344828   0.00000000
  0.03448276   0.10344828   0.00000000
  0.06896552   0.10344828   0.00000000
  0.10344828   0.10344828   0.00000000
  0.13793103   0.10344828   0.00000000
  0.17241379   0.10344828   0.00000000
  0.20689655   0.10344828   0.00000000
  0.24137931   0.10344828   0.00000000
  0.27586207   0.10344828   0.00000000
  0.31034483   0.10344828   0.00000000
  0.34482759   0.10344828   0.00000000
  0.37931034   0.10344828   0.00000000
  0.41379310   0.10344828   0.00000000
  0.44827586   0.10344828   0.00000000
  0.48275862   0.10344828   0.00000000
  0.51724138   0.10344828   0.00000000
  0.55172414   0.10344828   0.00000000
  0.58620690   0.10344828   0.00000000
  0.62068966   0.10344828   0.00000000
  0.65517241   0.10344828   0.00000000
  0.68965517   0.10344828   0.00000000
  0.72413793   0.10344828   0.00000000
  0.75862069   0.10344828   0.00000000
  0.79310345   0.10344828   0.00000000
  0.82758621   0.10344828   0.00000000
  0.86206897   0.10344828   0.00000000
  0.89655172   0.10344828   0.00000000
  0.93103448   0.10344828   0.00000000
  0.96551724   0.10344828   0.00000000
  1.00000000   0.10344828   0.00000000
  0.00000000   0.13793103   0.00000000
  0.03448276   0.13793103   0.00000000
  0.06896552   0.13793103   0.00000000
  0.10344828   0.13793103   0.00000000
  0.13793103   0.13793103   0.00000000
  0.17241379   0.13793103   0.00000000
  0.20689655   0.13793103   0.00000000
  0.24137931   0.13793103   0.00000000
  0.27586207   0.13793103   0.00000000
  0.31034483   0.13793103   0.00000000
  0.34482759   0.13793103   0.00000000
  0.37931034   0.13793103   0.00000000
  0.41379310   0.13793103   0.00000000
  0.44827586   0.13793103   0.00000000
  0.48275862   0.13793103   0.00000000
  0.51724138   0.13793103   0.00000000
  0.55172414   0.13793103   0.00000000
  0.58620690   0.13793103   0.00000000
  0.62068966   0.13793103   0.00000000
  0.65517241   0.13793103   0.00000000
  0.68965517   0.13793103   0.00000000
  0.72413793   0.13793103   0.00000000
  0.75862069   0.13793103   0.00000000
  0.79310345   0.13793103   0.00000000
  0.82758621   0.13793103   0.00000000
  0.86206897   0.13793103   0.00000000
  0.89655172   0.13793103   0.00000000
  0.93103448   0.13793103   0.00000000
  0.96551724   0.13793103   0.00000000
  1.00000000   0.13793103   0.00000000
  0.00000000   0.17241379   0.00000000
  0.03448276   0.17241379   0.00000000
  0.06896552   0.17241379   0.00000000
  0.10344828   0.17241379   0.00000000
  0.13793103   0.17241379   0.00000000
  0.17241379   0.17241379   0.00000000
  0.20689655   0.17241379   0.00000000
  0.24137931   0.17241379   0.00000000
  0.27586207   0.17241379   0.00000000
  0.31034483   0.17241379   0.00000000
  0.34482759   0.17241379   0.00000000
  0.37931034   0.17241379   0.00000000
  0.41379310   0.17241379   0.00000000
  0.44827586   0.17241379   0.00000000
  0.48275862   0.17241379   0.00000000
  0.51724138   0.17241379   0.00000000
  0.55172414   0.17241379   0.00000000
  0.58620690   0.17241379   0.00000000
  0.62068966   0.17241379   0.00000000
  0.65517241   0.17241379   0.00000000
  0.68965517   0.17241379   0.00000000
  0.72413793   0.17241379   0.00000000
  0.75862069   0.17241379   0.00000000
  0.79310345   0.17241379   0.00000000
  0.82758621   0.17241379   0.00000000
  0.86206897   0.17241379   0.00000000
  0.89655172   0.17241379   0.00000000
  0.93103448   0.17241379   0.00000000
  0.96551724   0.17241379   0.00000000
  1.00000000   0.17241379   0.00000000
  0.00000000   0.20689655   0.00000000
  0.03448276   0.20689655   0.00000000
  0.06896552   0.20689655   0.00000000
  0.10344828   0.20689655   0.00000000
  0.13793103   0.20689655   0.00000000
  0.17241379   0.20689655   0.00000000
  0.20689655   0.20689655   0.00000000
  0.24137931   0.20689655   0.00000000
  0.27586207   0.20689655   0.00000000
  0.31034483   0.20689655   0.00000000
  0.34482759   0.20689655   0.00000000
  0.37931034   0.20689655   0.00000000
  0.41379310   0.20689655   0.00000000
  0.44827586   0.20689655   0.00000000
  0.48275862   0.20689655   0.00000000
  0.51724138   0.20689655   0.00000000
  0.55172414   0.20689655   0.00000000
  0.58620690   0.20689655   0.00000000
  0.62068966   0.20689655   0.00000000
  0.65517241   0.20689655   0.00000000
  0.68965517   0.20689655   0.00000000
  0.72413793   0.20689655   0.00000000
  0.75862069   0.20689655   0.00000000
  0.79310345   0.20689655   0.00000000
  0.82758621   0.20689655   0.00000000
  0.86206897   0.20689655   0.00000000
  0.89655172   0.20689655   0.00000000
  0.93103448   0.20689655   0.00000000
  0.96551724   0.20689655   0.00000000
  1.00000000   0.20689655   0.00000000
  0.00000000   0.24137931   0.00000000
  0.03448276   0.24137931   0.00000000
  0.06896552   0.24137931   0.00000000
  0.10344828   0.24137931   0.00000000
  0.13793103   0.24137931   0.00000000
  0.17241379   0.24137931   0.00000000
  0.20689655   0.24137931   0.00000000
  0.24137931   0.24137931   0.00000000
  0.27586207   0.24137931   0.00000000
  0.31034483   0.24137931   0.00000000
  0.34482759   0.24137931   0.00000000
  0.37931034   0.24137931   0.00000000
  0.41379310   0.24137931   0.00000000
  0.44827586   0.24137931   0.00000000
  0.48275862   0.24137931   0.00000000
  0.51724138   0.24137931   0.00000000
  0.55172414   0.24137931   0.00000000
  0.58620690   0.24137931   0.00000000
  0.62068966   0.24137931   0.00000000
  0.65517241   0.24137931   0.00000000
  0.68965517   0.24137931   0.00000000
  0.72413793   0.24137931   0.00000000
  0.75862069   0.24137931   0.00000000
  0.79310345   0.24137931   0.00000000
  0.82758621   0.24137931   0.00000000
  0.86206897   0.24137931   0.00000000
  0.89655172   0.24137931   0.00000000
  0.93103448   0.24137931   0.00000000
  0.96551724   0.24137931   0.00000000
  1.00000000   0.24137931   0.00000000
  0.00000000   0.27586207   0.00000000
  0.03448276   0.27586207   0.00000000
  0.06896552   0.27586207   0.00000000
  0.10344828   0.27586207   0.00000000
  0.13793103   0.27586207   0.00000000
  0.17241379   0.27586207   0.00000000
  0.20689655   0.27586207   0.00000000
  0.24137931   0.27586207   0.00000000
  0.27586207   0.27586207   0.00000000
  0.31034483   0.27586207   0.00000000
  0.34482759   0.27586207   0.00000000
  0.37931034   0.27586207   0.00000000
  0.41379310   0.27586207   0.00000000
[...]
POINT_DATA 900
SCALARS u float 1
LOOKUP_TABLE default
  0.00000000
  0.00000000
  0.00000000
  0.00000000
  0.00000000
  0.00000000
  0.00000000
  0.00000000
  0.00000000
  0.00000000
  0.00000000
  0.00000000
  0.00000000
  0.00000000
  0.00000000
  0.00000000
  0.00000000
  0.00000000
  0.00000000
  0.00000000
  0.00000000
  0.00000000
  0.00000000
  0.00000000
  0.00000000
  0.00000000
  0.00000000
  0.00000000
  0.00000000
  0.00000000
  0.00000000
  0.00001931
  0.00003969
  0.00006162
  0.00008521
  0.00011033
  0.00013665
  0.00016372
  0.00019100
  0.00021788
  0.00024373
  0.00026792
  0.00028980
  0.00030879
  0.00032432
  0.00033589
  0.00034305
  0.00034544
  0.00034278
  0.00033487
  0.00032162
  0.00030303
  0.00027922
  0.00025041
  0.00021694
  0.00017926
  0.00013795
  0.00009373
  0.00004742
  0.00000000
  0.00000000
  0.00003671
  0.00007551
  0.00011738
  0.00016254
  0.00021074
  0.00026135
  0.00031349
  0.00036610
  0.00041801
  0.00046800
  0.00051483
  0.00055726
  0.00059413
  0.00062434
  0.00064692
  0.00066100
  0.00066587
  0.00066097
  0.00064593
  0.00062056
  0.00058486
  0.00053904
  0.00048352
  0.00041897
  0.00034626
  0.00026651
  0.00018109
  0.00009162
  0.00000000
  0.00000000
  0.00005033
  0.00010373
  0.00016162
  0.00022437
  0.00029163
  0.00036251
  0.00043576
  0.00050987
  0.00058318
  0.00065394
  0.00072035
  0.00078068
  0.00083324
  0.00087647
  0.00090896
  0.00092948
  0.00093700
  0.00093072
  0.00091008
  0.00087480
  0.00082487
  0.00076057
  0.00068252
  0.00059160
  0.00048908
  0.00037653
  0.00025590
  0.00012949
  0.00000000
  0.00000000
  0.00005844
  0.00012082
  0.00018902
  0.00026355
  0.00034399
  0.00042927
  0.00051784
  0.00060785
  0.00069723
  0.00078379
  0.00086533
  0.00093967
  0.00100471
  0.00105851
  0.00109931
  0.00112556
  0.00113597
  0.00112953
  0.00110552
  0.00106357
  0.00100365
  0.00092607
  0.00083155
  0.00072119
  0.00059650
  0.00045941
  0.00031232
  0.00015807
  0.00000000
  0.00000000
  0.00005947
  0.00012366
  0.00019482
  0.00027364
  0.00035971
  0.00045183
  0.00054828
  0.00064697
  0.00074554
  0.00084154
  0.00093244
  0.00101577
  0.00108915
  0.00115035
  0.00119737
  0.00122843
  0.00124203
  0.00123700
  0.00121249
  0.00116804
  0.00110356
  0.00101937
  0.00091622
  0.00079530
  0.00065829
  0.00050732
  0.00034505
  0.00017469
  0.00000000
  0.00000000
  0.00005210
  0.00010954
  0.00017494
  0.00024915
  0.00033183
  0.00042179
  0.00051723
  0.00061597
  0.00071554
  0.00081334
  0.00090671
  0.00099303
  0.00106978
  0.00113459
  0.00118532
  0.00122005
  0.00123719
  0.00123542
  0.00121382
  0.00117183
  0.00110927
  0.00102642
  0.00092399
  0.00080315
  0.00066556
  0.00051343
  0.00034947
  0.00017701
  0.00000000
  0.00000000
  0.00003528
  0.00007635
  0.00012615
  0.00018572
  0.00025485
  0.00033246
  0.00041685
  0.00050588
  0.00059714
  0.00068809
  0.00077610
  0.00085859
  0.00093305
  0.00099714
  0.00104870
  0.00108581
  0.00110682
  0.00111040
  0.00109554
  0.00106159
  0.00100829
  0.00093578
  0.00084464
  0.00073589
  0.00061106
  0.00047217
  0.00032180
  0.00016314
  0.00000000
  0.00000000
  0.00000828
  0.00002263
  0.00004622
  0.00008030
  0.00012489
  0.00017913
  0.00024156
  0.00031028
  0.00038314
  0.00045782
  0.00053195
  0.00060316
  0.00066916
  0.00072777
  0.00077699
  0.00081501
  0.00084025
  0.00085139
  0.00084739
  0.00082754
  0.00079142
  0.00073900
  0.00067062
  0.00058703
  0.00048940
  0.00037941
  0.00025924
  0.00013164
  0.00000000
  0.00000000
 -0.00002924
 -0.00005234
 -0.00006598
 -0.00006866
 -0.00006006
 -0.00004068
 -0.00001161
  0.00002571
  0.00006956
  0.00011810
  0.00016938
  0.00022148
  0.00027249
  0.00032061
  0.00036412
  0.00040146
  0.00043122
  0.00045219
  0.00046332
  0.00046384
  0.00045317
  0.00043103
  0.00039741
  0.00035262
  0.00029735
  0.00023267
  0.00016009
  0.00008166
  0.00000000
  0.00000000
 -0.00007723
 -0.00014848
 -0.00021034
 -0.00026106
 -0.00029996
 -0.00032704
 -0.00034281
 -0.00034810
 -0.00034398
 -0.00033162
 -0.00031230
 -0.00028730
 -0.00025793
 -0.00022547
 -0.00019116
 -0.00015618
 -0.00012166
 -0.00008866
 -0.00005813
 -0.00003094
 -0.00000785
  0.00001054
  0.00002378
  0.00003162
  0.00003401
  0.00003124
  0.00002389
  0.00001297
  0.00000000
  0.00000000
 -0.00013522
 -0.00026484
 -0.00038548
 -0.00049512
 -0.00059262
 -0.00067737
 -0.00074916
 -0.00080800
 -0.00085409
 -0.00088774
 -0.00090932
 -0.00091929
 -0.00091815
 -0.00090647
 -0.00088485
 -0.00085398
 -0.00081458
 -0.00076746
 -0.00071348
 -0.00065355
 -0.00058865
 -0.00051976
 -0.00044788
 -0.00037399
 -0.00029899
 -0.00022365
 -0.00014855
 -0.00007403
  0.00000000
  0.00000000
 -0.00020228
 -0.00039958
 -0.00058865
 -0.00076721
 -0.00093357
 -0.00108642
 -0.00122463
 -0.00134725
 -0.00145339
 -0.00154229
 -0.00161323
 -0.00166563
 -0.00169900
 -0.00171301
 -0.00170750
 -0.00168248
 -0.00163821
 -0.00157516
 -0.00149402
 -0.00139577
 -0.00128161
 -0.00115296
 -0.00101147
 -0.00085895
 -0.00069736
 -0.00052871
 -0.00035503
 -0.00017822
  0.00000000
  0.00000000
 -0.00027701
 -0.00054994
 -0.00081571
 -0.00107183
 -0.00131601
 -0.00154609
 -0.00175993
 -0.00195539
 -0.00213038
 -0.00228282
 -0.00241075
 -0.00251233
 -0.00258594
 -0.00263017
 -0.00264395
 -0.00262653
 -0.00257755
 -0.00249709
 -0.00238566
 -0.00224425
 -0.00207430
 -0.00187775
 -0.00165694
 -0.00141466
 -0.00115406
 -0.00087858
 -0.00059188
 -0.00029777
  0.00000000
  0.00000000
 -0.00035758
 -0.00071221
 -0.00106114
 -0.00140163
 -0.00173079
 -0.00204550
 -0.00234247
 -0.00261827
 -0.00286939
 -0.00309232
 -0.00328367
 -0.00344019
 -0.00355895
 -0.00363736
 -0.00367328
 -0.00366510
 -0.00361177
 -0.00351290
 -0.00336877
 -0.00318036
 -0.00294940
 -0.00267831
 -0.00237025
 -0.00202906
 -0.00165919
 -0.00126568
 -0.00085402
 -0.00043010
  0.00000000
  0.00000000
 -0.00044168
 -0.00088178
 -0.00131800
 -0.00174740
 -0.00216641
 -0.00257092
 -0.00295639
 -0.00331797
 -0.00365061
 -0.00394924
 -0.00420888
 -0.00442478
 -0.00459255
 -0.00470830
 -0.00476876
 -0.00477132
 -0.00471420
 -0.00459648
 -0.00441815
 -0.00418020
 -0.00388459
 -0.00353431
 -0.00313333
 -0.00268661
 -0.00220001
 -0.00168026
 -0.00113485
 -0.00057189
  0.00000000
  0.00000000
 -0.00052657
 -0.00105316
 -0.00157804
 -0.00209811
 -0.00260912
 -0.00310593
 -0.00358266
 -0.00403296
 -0.00445017
 -0.00482756
 -0.00515846
 -0.00543651
 -0.00565583
 -0.00581112
 -0.00589788
 -0.00591250
 -0.00585237
 -0.00571600
 -0.00550308
 -0.00521456
 -0.00485264
 -0.00442087
 -0.00392405
 -0.00336829
 -0.00276091
 -0.00211039
 -0.00142628
 -0.00071906
  0.00000000
  0.00000000
 -0.00060908
 -0.00122001
 -0.00183174
 -0.00244105
 -0.00304304
 -0.00363149
 -0.00419918
 -0.00473823
 -0.00524030
 -0.00569694
 -0.00609979
 -0.00644085
 -0.00671264
 -0.00690847
 -0.00702257
 -0.00705027
 -0.00698813
 -0.00683406
 -0.00658741
 -0.00624906
 -0.00582147
 -0.00530867
 -0.00471632
 -0.00405166
 -0.00332345
 -0.00254195
 -0.00171877
 -0.00086680
  0.00000000
  0.00000000
 -0.00068569
 -0.00137525
 -0.00206843
 -0.00276195
 -0.00345027
 -0.00412615
 -0.00478103
 -0.00540548
 -0.00598952
 -0.00652300
 -0.00699586
 -0.00739846
 -0.00772180
 -0.00795776
 -0.00809933
 -0.00814079
 -0.00807785
 -0.00790782
 -0.00762970
 -0.00724430
 -0.00675424
 -0.00616405
 -0.00548018
 -0.00471092
 -0.00386645
 -0.00295871
 -0.00200134
 -0.00100956
  0.00000000
  0.00000000
 -0.00075254
 -0.00151113
 -0.00227641
 -0.00304512
 -0.00381117
 -0.00456631
 -0.00530069
 -0.00600343
 -0.00666298
 -0.00726755
 -0.00780549
 -0.00826560
 -0.00863740
 -0.00891146
 -0.00907956
 -0.00913499
 -0.00907266
 -0.00888927
 -0.00858349
 -0.00815600
 -0.00760957
 -0.00694917
 -0.00618190
 -0.00531705
 -0.00436604
 -0.00334240
 -0.00226163
 -0.00114111
  0.00000000
  0.00000000
 -0.00080548
 -0.00161933
 -0.00244314
 -0.00327375
 -0.00410457
 -0.00492645
 -0.00572839
 -0.00649815
 -0.00722278
 -0.00788901
 -0.00848375
 -0.00899439
 -0.00940916
 -0.00971741
 -0.00990988
 -0.00997894
 -0.00991876
 -0.00972552
 -0.00939752
 -0.00893531
 -0.00834177
 -0.00762217
 -0.00678417
 -0.00583789
 -0.00479581
 -0.00367277
 -0.00248590
 -0.00125452
  0.00000000
  0.00000000
 -0.00084022
 -0.00169116
 -0.00255546
 -0.00343011
 -0.00430810
 -0.00517955
 -0.00603246
 -0.00685346
 -0.00762839
 -0.00834278
 -0.00898234
 -0.00953331
 -0.00998283
 -0.01031928
 -0.01053253
 -0.01061418
 -0.01055780
 -0.01035909
 -0.01001604
 -0.00952905
 -0.00890101
 -0.00813741
 -0.00724629
 -0.00623834
 -0.00512684
 -0.00392766
 -0.00265917
 -0.00134221
  0.00000000
  0.00000000
 -0.00085233
 -0.00171773
 -0.00259985
 -0.00349590
 -0.00439860
 -0.00529748
 -0.00617980
 -0.00703136
 -0.00783713
 -0.00858176
 -0.00925010
 -0.00982761
 -0.01030067
 -0.01065698
 -0.01088578
 -0.01097815
 -0.01092720
 -0.01072829
 -0.01037913
 -0.00987997
 -0.00923365
 -0.00844567
 -0.00752429
 -0.00648046
 -0.00532791
 -0.00408310
 -0.00276518
 -0.00139599
  0.00000000
  0.00000000
 -0.00083744
 -0.00169015
 -0.00256275
 -0.00345268
 -0.00435253
 -0.00525148
 -0.00613639
 -0.00699261
 -0.00780465
 -0.00855679
 -0.00923349
 -0.00981983
 -0.01030191
 -0.01066709
 -0.01090437
 -0.01100458
 -0.01096060
 -0.01076758
 -0.01042305
 -0.00992710
 -0.00928240
 -0.00849437
 -0.00757114
 -0.00652362
 -0.00536552
 -0.00411337
 -0.00278648
 -0.00140703
  0.00000000
  0.00000000
 -0.00079135
 -0.00159987
 -0.00243097
 -0.00328231
 -0.00414651
 -0.00501273
 -0.00586781
 -0.00669720
 -0.00748555
 -0.00821730
 -0.00887713
 -0.00945034
 -0.00992324
 -0.01028341
 -0.01052000
 -0.01062395
 -0.01058820
 -0.01040790
 -0.01008051
 -0.00960594
 -0.00898665
 -0.00822772
 -0.00733688
 -0.00632457
 -0.00520397
 -0.00399101
 -0.00270446
 -0.00136592
  0.00000000
  0.00000000
 -0.00071026
 -0.00143905
 -0.00219222
 -0.00296759
 -0.00375798
 -0.00455294
 -0.00533991
 -0.00610506
 -0.00683390
 -0.00751179
 -0.00812434
 -0.00865781
 -0.00909937
 -0.00943739
 -0.00966172
 -0.00976386
 -0.00973718
 -0.00957704
 -0.00928098
 -0.00884878
 -0.00828257
 -0.00758687
 -0.00676870
 -0.00583753
 -0.00480538
 -0.00368687
 -0.00249926
 -0.00126262
  0.00000000
  0.00000000
 -0.00059110
 -0.00120114
 -0.00183580
 -0.00249294
 -0.00316589
 -0.00384514
 -0.00451947
 -0.00517663
 -0.00580389
 -0.00638843
 -0.00691771
 -0.00737976
 -0.00776340
 -0.00805856
 -0.00825637
 -0.00834944
 -0.00833197
 -0.00819987
 -0.00795092
 -0.00758482
 -0.00710327
 -0.00651003
 -0.00581098
 -0.00501412
 -0.00412963
 -0.00316992
 -0.00214976
 -0.00108641
  0.00000000
  0.00000000
 -0.00043202
 -0.00088167
 -0.00135355
 -0.00184542
 -0.00235161
 -0.00286440
 -0.00337491
 -0.00387355
 -0.00435043
 -0.00479567
 -0.00519960
 -0.00555302
 -0.00584739
 -0.00607495
 -0.00622892
 -0.00630362
 -0.00629457
 -0.00619861
 -0.00601396
 -0.00574032
 -0.00537888
 -0.00493240
 -0.00440522
 -0.00380328
 -0.00313418
 -0.00240719
 -0.00163338
 -0.00082582
  0.00000000
  0.00000000
 -0.00023331
 -0.00047970
 -0.00074118
 -0.00101581
 -0.00129990
 -0.00158875
 -0.00187709
 -0.00215934
 -0.00242977
 -0.00268270
 -0.00291260
 -0.00311420
 -0.00328263
 -0.00341344
 -0.00350279
 -0.00354740
 -0.00354473
 -0.00349293
 -0.00339096
 -0.00323860
 -0.00303649
 -0.00278611
 -0.00248986
 -0.00215101
 -0.00177378
 -0.00136330
 -0.00092573
 -0.00046836
  0.00000000
  0.00000000
  0.00000000
  0.00000000
  0.00000000
  0.00000000
  0.00000000
  0.00000000
  0.00000000
  0.00000000
  0.00000000
  0.00000000
  0.00000000
  0.00000000
  0.00000000
  0.00000000
  0.00000000
  0.00000000
  0.00000000
  0.00000000
  0.00000000
  0.00000000
  0.00000000
  0.00000000
  0.00000000
  0.00000000
  0.00000000
  0.00000000
  0.00000000
  0.00000000
  0.00000000
